 &FCI NORB=   4,NELEC= 4,MS2=0,
  ORBSYM=1,1,1,1,
  ISYM=1,
 &END
 1.121963589832471    1    1    1    1
 0.6790962998719769    2    1    2    1
 1.01609326489802    2    2    1    1
 -0.4440542872961318    2    2    2    2
 -0.6476954302700513    3    1    3    1
 -0.7601086924905555    3    2    3    2
 -0.4168964520539974    3    3    1    1
 1.103127588079028    3    3    2    2
 0.7278415354191388    3    3    3    3
 -0.03687902473571814    4    1    3    2
 0.4239733612112498    4    1    4    1
 -0.3149525088974792    4    2    3    1
 0.02456757390796831    4    2    4    2
 0.1280709836042778    4    3    2    1
 -0.3985119264176552    4    3    4    3
 1.623941570183871    4    4    1    1
 0.280617382273447    4    4    2    2
 0.2626677468876237    4    4    3    3
 0.5324581938241744    4    4    4    4
 0.1802762672904425    1    1  0  0
 -0.4595897151910541    2    2  0  0
 0.01470326902174717    3    3  0  0
 -1.806754624694248    4    4  0  0
 0  0  0  0  0
