 &FCI NORB=   4,NELEC= 4,MS2=0,
  ORBSYM=1,1,1,1,
  ISYM=1,
 &END
 0.0262319670779401    1    1    1    1
 -0.4895797401454209    2    1    1    1
 0.9754964725365303    2    1    2    1
 0.6663368891343799    2    2    1    1
 -0.6322168417673976    2    2    2    1
 0.2072315649124966    2    2    2    2
 -0.07753843546545501    3    1    1    1
 0.02313391957747143    3    1    2    1
 -0.4446438354479142    3    1    2    2
 0.1139987832825759    3    1    3    1
 -0.2062540992300214    3    2    1    1
 0.07882554807193924    3    2    2    1
 0.03260095019131215    3    2    2    2
 0.4847967132611845    3    2    3    1
 -0.01541837962787132    3    2    3    2
 -0.7216571580694494    3    3    1    1
 0.4619177524415105    3    3    2    1
 0.4931952268069069    3    3    2    2
 0.429505951617566    3    3    3    1
 0.6953399146937876    3    3    3    2
 0.9974391906026664    3    3    3    3
 -0.4325495168087213    4    1    1    1
 -0.1000819543051763    4    1    2    1
 -0.1939121681204544    4    1    2    2
 0.2020312899479303    4    1    3    1
 0.003078648991936397    4    1    3    2
 0.4438627684573303    4    1    3    3
 -0.9092773207717869    4    1    4    1
 0.8565086875339147    4    2    1    1
 0.132453312981327    4    2    2    1
 -0.09469344846422965    4    2    2    2
 0.1070253914157049    4    2    3    1
 0.7466994618924926    4    2    3    2
 -0.3520941649272405    4    2    3    3
 0.02308770718365776    4    2    4    1
 -0.8766170879609313    4    2    4    2
 0.5106194638736188    4    3    1    1
 0.386860551654826    4    3    2    1
 -0.3256138975915863    4    3    2    2
 0.07470214805017344    4    3    3    1
 0.4267981807514594    4    3    3    2
 0.4598686856928638    4    3    3    3
 0.07857289025768334    4    3    4    1
 -0.219110287754721    4    3    4    2
 -0.9358597221039636    4    3    4    3
 0.2910223756947806    4    4    1    1
 0.02459347449240011    4    4    2    1
 0.4476383379419933    4    4    2    2
 -0.3799411515437145    4    4    3    1
 0.8394708703806805    4    4    3    2
 0.3246270948724196    4    4    3    3
 0.04117731878422735    4    4    4    1
 0.05883395905580024    4    4    4    2
 -0.3627788292557555    4    4    4    3
 -0.6226355605740193    4    4    4    4
 0.1526235135462346    1    1  0  0
 -0.355561706967146    2    1  0  0
 -0.7396467487400231    2    2  0  0
 0.8209881074727426    3    1  0  0
 -0.1786389277014008    3    2  0  0
 -0.1290539321324729    3    3  0  0
 0.1932325051592831    4    1  0  0
 -0.03367260369254814    4    2  0  0
 -0.04747157276387508    4    3  0  0
 -0.2412577222461386    4    4  0  0
 0  0  0  0  0
